% Model:              modelo_3D_secondary_force.mph
% Version:            COMSOL 5.0.0.243
% Date:               May 5 2025, 13:41
% Dimension:          1
% Nodes:              7
% Expressions:        1
% Description:        Global
% x                       Height
4                   ,      -3.791735539120857E-10
5                    ,     -1.6436684352689745E-10
6                     ,    -8.503995595677816E-11
7                      ,   -4.9624994207796823E-11
8                       ,  -3.1883276998232104E-11
9.000000000000002        , -2.1514790489060092E-11
10                       , -1.5624590469027505E-11
